# Forces fbdev on ppc with ATI Rage 128
# This driver was broken on ppc since at least 2004, perhaps earlier.

if [ -z "$XSERVER" ] && \
   [ "$(uname -m)" = "ppc" ] && \
   [ -n "$(PATH=/sbin:/usr/sbin:/bin:/usr/bin lspci |grep 'ATI Technologies Inc Rage 128')" ]; then
       XSERVER=fbdev
fi
